
Running Job 1 of 1 ./qm_mm_scratch/input
qchem ./qm_mm_scratch/input_46053.0 /tmp//save_files/ 0
/network/rit/lab/ChenRNALab/bin/Q-Chem5.2-GPU/exe/qcprog.exe_s ./qm_mm_scratch/input_46053.0 /tmp//save_files/
                  Welcome to Q-Chem
     A Quantum Leap Into The Future Of Chemistry


 Q-Chem 5.2, Q-Chem, Inc., Pleasanton, CA (2019)

 License issued to: SRG Alan Chen, The State University of New York at Albany

 Yihan Shao,  Zhengting Gan,  E. Epifanovsky,  A. T. B. Gilbert,  M. Wormit,  
 J. Kussmann,  A. W. Lange,  A. Behn,  Jia Deng,  Xintian Feng,  D. Ghosh,  
 M. Goldey,  P. R. Horn,  L. D. Jacobson,  I. Kaliman,  T. Kus,  A. Landau,  
 Jie Liu,  E. I. Proynov,  R. M. Richard,  R. P. Steele,  E. J. Sundstrom,  
 H. L. Woodcock III,  P. M. Zimmerman,  D. Zuev,  B. Alam,  B. Albrecht,  
 E. Alguire,  S. A. Baeppler,  D. Barton,  Z. Benda,  Y. A. Bernard,  
 E. J. Berquist,  K. B. Bravaya,  H. Burton,  K. Carter-Fenk,  D. Casanova,  
 Chun-Min Chang,  Yunqing Chen,  A. Chien,  K. D. Closser,  M. P. Coons,  
 S. Coriani,  S. Dasgupta,  A. L. Dempwolff,  M. Diedenhofen,  Hainam Do,  
 R. G. Edgar,  Po-Tung Fang,  S. Faraji,  S. Fatehi,  Qingguo Feng,  
 J. Fosso-Tande,  J. Gayvert,  Qinghui Ge,  A. Ghysels,  G. Gidofalvi,  
 J. Gomes,  J. Gonthier,  A. Gunina,  D. Hait,  M. W. D. Hanson-Heine,  
 P. H. P. Harbach,  A. W. Hauser,  M. F. Herbst,  J. E. Herr,  
 E. G. Hohenstein,  Z. C. Holden,  Kerwin Hui,  B. C. Huynh,  T.-C. Jagau,  
 Hyunjun Ji,  B. Kaduk,  K. Khistyaev,  Jaehoon Kim,  P. Klunzinger,  K. Koh,  
 D. Kosenkov,  L. Koulias,  T. Kowalczyk,  C. M. Krauter,  A. Kunitsa,  
 Ka Un Lao,  A. Laurent,  K. V. Lawler,  Joonho Lee,  D. Lefrancois,  
 S. Lehtola,  D. S. Levine,  Yi-Pei Li,  You-Sheng Lin,  Fenglai Liu,  
 Kuan-Yu Liu,  E. Livshits,  M. Loipersberger,  A. Luenser,  P. Manohar,  
 E. Mansoor,  S. F. Manzer,  Shan-Ping Mao,  Yuezhi Mao,  N. Mardirossian,  
 A. V. Marenich,  T. Markovich,  L. A. Martinez-Martinez,  S. A. Maurer,  
 N. J. Mayhall,  S. C. McKenzie,  J.-M. Mewes,  P. Morgante,  A. F. Morrison,  
 J. W. Mullinax,  K. Nanda,  T. S. Nguyen-Beck,  R. Olivares-Amaya,  
 J. A. Parkhill,  S. K. Paul,  Zheng Pei,  T. M. Perrine,  F. Plasser,  
 P. Pokhilko,  S. Prager,  A. Prociuk,  E. Ramos,  B. Rana,  D. R. Rehn,  
 F. Rob,  M. Scheurer,  M. Schneider,  N. Sergueev,  S. M. Sharada,  
 S. Sharma,  D. W. Small,  T. Stauch,  C. J. Stein,  T. Stein,  Yu-Chuan Su,  
 S. P. Veccham,  A. J. W. Thom,  A. Tkatchenko,  T. Tsuchimochi,  
 N. M. Tubman,  L. Vogt,  M. L. Vidal,  O. Vydrov,  M. A. Watson,  J. Wenzel,  
 M. de Wergifosse,  T. A. Wesolowski,  A. White,  J. Witte,  A. Yamada,  
 Jun Yang,  K. Yao,  S. Yeganeh,  S. R. Yost,  Zhi-Qiang You,  A. Zech,  
 Igor Ying Zhang,  Xing Zhang,  Yan Zhao,  Ying Zhu,  B. R. Brooks,  
 G. K. L. Chan,  C. J. Cramer,  M. S. Gordon,  W. J. Hehre,  A. Klamt,  
 M. W. Schmidt,  C. D. Sherrill,  D. G. Truhlar,  A. Aspuru-Guzik,  R. Baer,  
 A. T. Bell,  N. A. Besley,  Jeng-Da Chai,  A. E. DePrince, III,  
 R. A. DiStasio Jr.,  A. Dreuw,  B. D. Dunietz,  T. R. Furlani,  
 Chao-Ping Hsu,  Yousung Jung,  Jing Kong,  D. S. Lambrecht,  WanZhen Liang,  
 C. Ochsenfeld,  V. A. Rassolov,  L. V. Slipchenko,  J. E. Subotnik,  
 T. Van Voorhis,  J. M. Herbert,  A. I. Krylov,  P. M. W. Gill,  M. Head-Gordon

 Contributors to earlier versions of Q-Chem not listed above: 
 R. D. Adamson,  B. Austin,  J. Baker,  G. J. O. Beran,  K. Brandhorst,  
 S. T. Brown,  E. F. C. Byrd,  A. K. Chakraborty,  C.-L. Cheng,  
 Siu Hung Chien,  D. M. Chipman,  D. L. Crittenden,  H. Dachsel,  
 R. J. Doerksen,  A. D. Dutoi,  L. Fusti-Molnar,  W. A. Goddard III,  
 A. Golubeva-Zadorozhnaya,  S. R. Gwaltney,  G. Hawkins,  A. Heyden,  
 S. Hirata,  G. Kedziora,  F. J. Keil,  C. Kelley,  Jihan Kim,  R. A. King,  
 R. Z. Khaliullin,  P. P. Korambath,  W. Kurlancheek,  A. M. Lee,  M. S. Lee,  
 S. V. Levchenko,  Ching Yeh Lin,  D. Liotard,  R. C. Lochan,  I. Lotan,  
 P. E. Maslen,  N. Nair,  D. P. O'Neill,  D. Neuhauser,  E. Neuscamman,  
 C. M. Oana,  R. Olson,  B. Peters,  R. Peverati,  P. A. Pieniazek,  
 Y. M. Rhee,  J. Ritchie,  M. A. Rohrdanz,  E. Rosta,  N. J. Russ,  
 H. F. Schaefer III,  N. E. Schultz,  N. Shenvi,  A. C. Simmonett,  A. Sodt,  
 D. Stuck,  K. S. Thanthiriwatte,  V. Vanovschi,  Tao Wang,  A. Warshel,  
 C. F. Williams,  Q. Wu,  X. Xu,  W. Zhang

 Please cite Q-Chem as follows:
 Y. Shao et al., Mol. Phys. 113, 184-215 (2015)
 DOI: 10.1080/00268976.2014.952696

 Q-Chem 5.2.2 for Intel X86 EM64T Linux

 Parts of Q-Chem use Armadillo 8.300.2 (Tropical Shenanigans).
 http://arma.sourceforge.net/

 Q-Chem begins on Wed Dec 16 15:36:08 2020  

Host: 
0

     Scratch files written to /tmp//save_files//
 Nov2519 |scratch|qcdevops|jenkins|workspace|build_RNUM 7021   
Processing $rem in /network/rit/lab/ChenRNALab/bin/Q-Chem5.2-GPU/config/preferences:
	 MEM_TOTAL  48000 
Requested ECP is SRLC
NAlpha2: 630
NElect   630
Mult     1

Checking the input file for inconsistencies... 	...done.
 ----------------------------------------------------------------
 Nuclear Repulsion Energy =        2323.48771160 hartrees
 There are      109 alpha and      109 beta electrons
 Requested basis set is SRLC
 There are 257 shells and 441 basis functions

 Total QAlloc Memory Limit  48000 MB
 Mega-Array Size       188 MB
 MEM_STATIC part       192 MB
 A cutoff of  1.0D-08 yielded  16811 shell pairs
 There are     56045 function pairs
 Requested basis set is SRLC
 Compound shells will be simplified
 There are 257 shells and 441 basis functions
 A cutoff of  1.0D-08 yielded  16811 shell pairs
 There are     56045 function pairs
 Smallest overlap matrix eigenvalue = 8.05E-04

 Scale SEOQF with 1.000000e-02/1.000000e-03/1.000000e-02

 Standard Electronic Orientation quadrupole field applied
 Nucleus-field energy     =    -0.0000001029 hartrees
 Adding 1409 external point charges to one-electron Hamiltonian
 Nucleus-charge energy    =    -9.6351490697 hartrees
 Charge-charge energy     =  -132.7477100671 hartrees
 Guess from superposition of atomic densities
 Warning:  Energy on first SCF cycle will be non-variational
 SAD guess density has 218.000000 electrons

 -----------------------------------------------------------------------
  General SCF calculation program by
  Eric Jon Sundstrom, Paul Horn, Yuezhi Mao, Dmitri Zuev, Alec White,
  David Stuck, Shaama M.S., Shane Yost, Joonho Lee, David Small,
  Daniel Levine, Susi Lehtola, Hugh Burton, Evgeny Epifanovsky,
  Bang C. Huynh
 -----------------------------------------------------------------------
 Exchange:     0.2500 Hartree-Fock + 0.7500 PBE
 Correlation:  1.0000 PBE
 Using SG-1 standard quadrature grid
 using 16 threads for integral computing
 -------------------------------------------------------
 OpenMP Integral computing Module                
 Release: version 1.0, May 2013, Q-Chem Inc. Pittsburgh 
 -------------------------------------------------------
 using 16 threads for integral computing
 -------------------------------------------------------
 OpenMP Integral computing Module                
 Release: version 1.0, May 2013, Q-Chem Inc. Pittsburgh 
 -------------------------------------------------------
 A restricted SCF calculation will be
 performed using DIIS
 SCF converges when DIIS error is below 1.0e-05
 ---------------------------------------
  Cycle       Energy         DIIS error
 ---------------------------------------
    1    -504.6920299417      1.58e-02  
    2    -504.6480610493      7.57e-03  
    3    -473.4090612580      2.17e-02  
    4    -501.4216749876      8.81e-03  
    5    -495.4179881142      1.22e-02  
    6    -504.1917561620      7.16e-03  
    7    -504.3605025817      7.08e-03  
    8    -505.4986764366      5.07e-03  
    9    -504.6218691338      6.25e-03  
   10    -504.9184049166      6.17e-03  
   11    -505.7282046822      5.56e-03  
   12    -505.2356459673      5.86e-03  
   13    -506.7436537145      1.18e-03  
   14    -506.5919073813      2.50e-03  
   15    -506.5909309953      2.50e-03  
   16    -506.7284554136      1.38e-03  
   17    -506.7685225436      8.97e-04  
   18    -506.7804671257      7.37e-04  
   19    -506.7779884205      7.79e-04  
   20    -506.7782991866      7.82e-04  
   21    -506.7832918999      7.06e-04  
   22    -506.7944555413      4.23e-04  
   23    -506.8026381894      1.38e-04  
   24    -506.8038709448      7.12e-05  
   25    -506.8042994883      4.75e-05  
   26    -506.8045856905      2.61e-05  
   27    -506.8047957840      2.22e-05  
   28    -506.8048603130      1.25e-05  
   29    -506.8049097726      1.21e-05  
   30    -506.8050500002      1.39e-05  
   31    -506.8052225488      1.31e-05  
   32    -506.8055322686      1.77e-05  
   33    -506.8056499010      8.95e-06  Convergence criterion met
 ---------------------------------------
 SCF time:   CPU 1262.91s  wall 90.00s 
 SCF   energy in the final basis set =     -506.8056499010
 Total energy in the final basis set =     -506.8056499010
 
          Ground-State Mulliken Net Atomic Charges

     Atom                 Charge (a.u.)
  ----------------------------------------
      1 H                     0.157985
      2 H                     0.242553
      3 H                     0.261965
      4 H                     0.222028
      5 H                     0.211734
      6 H                     0.198376
      7 Se                   -1.058132
      8 Zn                    0.950799
      9 Zn                    0.866662
     10 N                    -0.808765
     11 C                    -0.365944
     12 H                     0.196042
     13 H                     0.278856
     14 H                     0.443354
     15 H                     0.350383
     16 N                    -0.813295
     17 C                    -0.371734
     18 H                     0.202056
     19 H                     0.187831
     20 H                     0.440666
     21 H                     0.365312
     22 Se                   -0.476386
     23 Se                   -0.854826
     24 Se                   -0.764907
     25 Se                   -0.777265
     26 Zn                    0.602720
     27 Zn                    0.470566
     28 Zn                    0.435164
     29 Zn                    0.767150
     30 N                    -0.775824
     31 C                    -0.385541
     32 H                     0.144387
     33 H                     0.202593
     34 H                     0.398546
     35 H                     0.339025
     36 N                    -0.761442
     37 C                    -0.352224
     38 H                     0.193455
     39 H                     0.138131
     40 H                     0.335935
     41 H                     0.382450
     42 N                    -0.745540
     43 C                    -0.340250
     44 H                     0.167982
     45 H                     0.170734
     46 H                     0.330328
     47 H                     0.367675
     48 N                    -0.798741
     49 C                    -0.332957
     50 H                     0.116389
     51 H                     0.296737
     52 H                     0.362165
     53 H                     0.333017
     54 Se                   -0.848930
     55 Zn                    0.904899
     56 O                    -0.037135
     57 O                    -0.120953
     58 O                    -0.264975
     59 O                    -0.467795
     60 O                    -0.201639
     61 O                    -0.410580
     62 O                    -0.945519
     63 H                     0.507582
     64 H                     0.459043
     65 O                    -0.851986
     66 H                     0.430802
     67 H                     0.424632
     68 O                    -0.974135
     69 H                     0.480601
     70 H                     0.452690
     71 O                    -0.923926
     72 H                     0.461348
     73 H                     0.480491
     74 O                    -0.941537
     75 H                     0.472347
     76 H                     0.564941
     77 O                    -0.920023
     78 H                     0.494740
     79 H                     0.427036
  ----------------------------------------
  Sum of atomic charges =    -0.000001

 Electrostatic potential will be computed using the SCF density
   ... ESP [+ EField if requested] will be 
 evaluated on a read-in grid points from file ESPGrid.
  --- DONE ESP SUMMARY ---
 The QM part of the energy is   -506.805649900954     
 Calculating analytic gradient of the SCF energy
 Max gradient component =       2.561E-02
 RMS gradient           =       5.446E-03
 Gradient time:  CPU 156.01 s  wall 34.20 s
Archival summary:
1\1\chen-26.rit.albany.edu\JobtypUnspecified\ProcedureUnspecified\BasisUnspecified\e6n7126642(\cm114929\WedDec1615:38:152020WedDec1615:38:152020\0\\#,JobtypUnspecified,ProcedureUnspecified,BasisUnspecified,\\412,1\Se\H,1,2.13212\N,2,1.03875,1,161.073\H,3,1.02206,2,105.291,1,76.4051,0\C,3,1.46867,2,108.888,1,-161.19,0\H,5,1.09134,3,109.836,2,154.395,0\H,5,1.09326,3,110.149,2,-82.8447,0\H,5,1.09436,3,110.891,2,35.3639,0\Zn,3,2.18667,2,112.417,1,-5.41668,0\H,4,2.27153,3,105.714,2,30.3016,0\O,10,0.968036,4,133.604,3,100.865,0\H,11,0.991313,10,108.888,4,111.017,0\O,12,1.88799,11,161.503,10,142.91,0\H,13,0.979695,12,111.158,11,-22.9466,0\H,13,0.993542,12,102.693,11,-136.577,0\O,15,1.74426,13,162.183,12,164.769,0\H,16,0.975689,15,138.68,13,-1.06794,0\H,16,0.976173,15,94.808,13,130.979,0\Se,9,2.33157,3,103.182,2,59.2772,0\O,15,2.37625,13,111.089,12,-19.9694,0\O,20,1.345,15,131.844,13,-72.3167,0\Zn,1,2.42777,2,146.345,3,178.517,0\N,22,2.13671,1,126.848,2,17.1691,0\H,23,1.01229,22,86.7709,1,67.8466,0\H,23,1.02971,22,112.354,1,175.633,0\C,23,1.48979,22,126.343,1,-44.351,0\H,26,1.09071,23,112.781,22,12.7146,0\H,26,1.09194,23,110.251,22,-105.671,0\H,26,1.09476,23,109.64,22,134.257,0\Se,22,2.39998,1,113.884,2,-120.712,0\H,30,2.11923,22,94.9238,1,27.6906,0\N,31,1.05006,30,163.082,22,-55.5213,0\H,32,1.01764,31,104.583,30,-78.8039,0\C,32,1.46988,31,109.31,30,160.339,0\H,34,1.08903,32,110.405,31,-153.817,0\H,34,1.09434,32,110.782,31,-34.3866,0\H,34,1.09476,32,109.693,31,86.2191,0\Zn,32,2.16674,31,109.645,30,14.3309,0\Zn,30,2.41557,22,109.862,1,-62.6717,0\N,39,2.11598,30,92.2223,22,-69.7854,0\H,40,1.02179,39,84.0679,30,39.9944,0\H,40,1.0289,39,110.055,30,-63.9684,0\C,40,1.48465,39,129.507,30,152.333,0\H,43,1.08659,40,110.456,39,-14.1165,0\H,43,1.09017,40,111.302,39,105.529,0\H,43,1.09389,40,109.629,39,-132.911,0\H,44,2.04624,43,142.885,40,-63.3082,0\C,47,1.0938,44,118.87,43,-42.0348,0\H,48,1.08863,47,110.269,44,-153.756,0\H,48,1.08966,47,111.008,44,-37.1643,0\N,48,1.46783,47,111.21,44,86.4035,0\H,51,1.01231,48,113.143,47,37.4409,0\H,51,1.02144,48,111.325,47,-86.6054,0\H,49,1.87545,48,108.456,47,121.869,0\O,54,0.995306,49,123.41,48,-41.3804,0\H,55,0.985962,54,104.948,49,161.024,0\O,54,1.79442,49,63.4106,48,127.835,0\O,57,1.43238,54,108.143,49,-99.5293,0\Zn,58,1.91098,57,100.055,54,125.308,0\H,49,2.16115,48,144.916,47,-51.5311,0\C,60,1.09399,49,117.326,48,35.656,0\H,61,1.08412,60,109.061,49,154.836,0\H,61,1.09311,60,110.394,49,35.5757,0\N,61,1.48384,60,108.119,49,-85.6652,0\H,64,1.03129,61,107.486,60,84.5362,0\H,64,1.03694,61,108.014,60,-29.607,0\Zn,64,2.02769,61,131.155,60,-138.173,0\Se,65,2.26164,64,156.652,61,139.31,0\Zn,68,2.35642,65,95.3262,64,-30.9708,0\Se,67,2.42757,64,117.031,61,-83.9416,0\O,9,2.43884,3,100.19,2,149.319,0\H,71,0.978665,9,140.579,3,66.7296,0\H,71,1.00502,9,110.793,3,-113.936,0\H,17,2.51381,16,102.067,15,-115.928,0\O,74,0.971462,17,136.554,16,90.5892,0\H,75,0.971566,74,111.886,17,153.699,0\Se,67,2.52797,64,101.06,61,152.763,0\O,19,2.77396,9,144.822,3,153.43,0\O,78,1.28127,19,125.02,9,52.47,0\\\@

 Total job time:  127.51s(wall), 1445.12s(cpu) 
 Wed Dec 16 15:38:15 2020

        *************************************************************
        *                                                           *
        *  Thank you very much for using Q-Chem.  Have a nice day.  *
        *                                                           *
        *************************************************************


